file 6710615 1712075282                                         
version 3
run RBAComparaSLOTS-5-20240402-18:28:01-15336
attr configname RBAComparaSLOTS
attr datetime 20240402-18:28:01
attr datetimef 20240402-182801
attr experiment RBAComparaSLOTS
attr inifile omnetpp.ini
attr iterationvars "$numHosts=20, $iaMean=3"
attr iterationvarsd numHosts=20/iaMean=3
attr iterationvarsf numHosts=20,iaMean=3-
attr measurement "$numHosts=20, $iaMean=3"
attr network Aloha
attr processid 15336
attr repetition 0
attr replication #0
attr resultdir results
attr runnumber 5
attr seedset 5
itervar iaMean 3
itervar numHosts 20
config repeat 1
config sim-time-limit 120min
config Aloha.slotTime 100ms
config Aloha.numHosts 20
config Aloha.host[*].iaTime exponential(3s)
config network Aloha
config Aloha.numHosts 20
config Aloha.slotTime 0s
config Aloha.txRate 9.6kbps
config Aloha.host[*].pkLenBits 952b
config **.x "uniform(0m, 1000m)"
config **.y "uniform(0m, 1000m)"
config **.animationHoldTimeOnCollision 0s
config **.idleAnimationSpeed 1
config **.transmissionEdgeAnimationSpeed 1e-6
config **.midTransmissionAnimationSpeed 1e-1

vector 0 Aloha.server serverChannelState:vector ETV
attr enum IDLE=0,TRANSMISSION=1,COLLISION=2
attr recordingmode vector
attr source channelState
attr title "Channel state"
vector 1 Aloha.host[0] radioState:vector ETV
attr enum IDLE=0,TRANSMIT=1
attr recordingmode vector
attr source state
attr title "Radio state"
vector 2 Aloha.host[1] radioState:vector ETV
attr enum IDLE=0,TRANSMIT=1
attr recordingmode vector
attr source state
attr title "Radio state"
vector 3 Aloha.host[2] radioState:vector ETV
attr enum IDLE=0,TRANSMIT=1
attr recordingmode vector
attr source state
attr title "Radio state"
vector 4 Aloha.host[3] radioState:vector ETV
attr enum IDLE=0,TRANSMIT=1
attr recordingmode vector
attr source state
attr title "Radio state"
vector 5 Aloha.host[4] radioState:vector ETV
attr enum IDLE=0,TRANSMIT=1
attr recordingmode vector
attr source state
attr title "Radio state"
vector 6 Aloha.host[5] radioState:vector ETV
attr enum IDLE=0,TRANSMIT=1
attr recordingmode vector
attr source state
attr title "Radio state"
vector 7 Aloha.host[6] radioState:vector ETV
attr enum IDLE=0,TRANSMIT=1
attr recordingmode vector
attr source state
attr title "Radio state"
vector 8 Aloha.host[7] radioState:vector ETV
attr enum IDLE=0,TRANSMIT=1
attr recordingmode vector
attr source state
attr title "Radio state"
vector 9 Aloha.host[8] radioState:vector ETV
attr enum IDLE=0,TRANSMIT=1
attr recordingmode vector
attr source state
attr title "Radio state"
vector 10 Aloha.host[9] radioState:vector ETV
attr enum IDLE=0,TRANSMIT=1
attr recordingmode vector
attr source state
attr title "Radio state"
vector 11 Aloha.host[10] radioState:vector ETV
attr enum IDLE=0,TRANSMIT=1
attr recordingmode vector
attr source state
attr title "Radio state"
vector 12 Aloha.host[11] radioState:vector ETV
attr enum IDLE=0,TRANSMIT=1
attr recordingmode vector
attr source state
attr title "Radio state"
vector 13 Aloha.host[12] radioState:vector ETV
attr enum IDLE=0,TRANSMIT=1
attr recordingmode vector
attr source state
attr title "Radio state"
vector 14 Aloha.host[13] radioState:vector ETV
attr enum IDLE=0,TRANSMIT=1
attr recordingmode vector
attr source state
attr title "Radio state"
vector 15 Aloha.host[14] radioState:vector ETV
attr enum IDLE=0,TRANSMIT=1
attr recordingmode vector
attr source state
attr title "Radio state"
vector 16 Aloha.host[15] radioState:vector ETV
attr enum IDLE=0,TRANSMIT=1
attr recordingmode vector
attr source state
attr title "Radio state"
vector 17 Aloha.host[16] radioState:vector ETV
attr enum IDLE=0,TRANSMIT=1
attr recordingmode vector
attr source state
attr title "Radio state"
vector 18 Aloha.host[17] radioState:vector ETV
attr enum IDLE=0,TRANSMIT=1
attr recordingmode vector
attr source state
attr title "Radio state"
vector 19 Aloha.host[18] radioState:vector ETV
attr enum IDLE=0,TRANSMIT=1
attr recordingmode vector
attr source state
attr title "Radio state"
vector 20 Aloha.host[19] radioState:vector ETV
attr enum IDLE=0,TRANSMIT=1
attr recordingmode vector
attr source state
attr title "Radio state"
vector 21 Aloha.server channelUtilizationVEC:vector ETV
attr interpolationmode linear
attr recordingmode vector
attr source timeavg(receive)
attr title "channel utilization VECTOR"
0	4420 928694 0 70219 0 2952.100002585383 32768 0 2 23416 32792
21	933114 1459671 18 113519 0.500002514676 4787.999167562823 32768 0 0.41348025326767 11145.557611997 3791.9792555475
0	2392785 964979 70224 140430 2952.19916925205 5935.100000962166 32768 0 2 23392 32736
0	3357764 409100 140432 169739 5935.199167628833 7199.69916925205 13694 0 2 9728 13570
1	3766864 106257 0 169729 0 7199.199166666667 4501 0 1 2250 2250
2	3873121 109099 0 169649 0 7196.199166666667 4625 0 1 2312 2312
3	3982220 104980 0 169686 0 7197.599166666667 4451 0 1 2225 2225
4	4087200 106662 0 169647 0 7196.199166666667 4529 0 1 2264 2264
5	4193862 103659 0 169593 0 7192.999166666667 4401 0 1 2200 2200
6	4297521 107284 0 169674 0 7197.099166666667 4545 0 1 2272 2272
7	4404805 104546 0 169704 0 7198.199166666667 4435 0 1 2217 2217
8	4509351 107204 0 169639 0 7195.999166666667 4547 0 1 2273 2273
9	4616555 103304 0 169682 0 7197.499166666667 4375 0 1 2187 2187
10	4719859 112015 0 169623 0 7193.999166666667 4555 0 1 2277 2277
11	4831874 114192 0 169715 0 7198.799166666667 4641 0 1 2320 2320
12	4946066 112016 0 169541 0 7191.299166666667 4553 0 1 2276 2276
13	5058082 113297 0 169635 0 7195.799166666667 4607 0 1 2303 2303
14	5171379 111811 0 169723 0 7199.099166666667 4547 0 1 2273 2273
15	5283190 107780 0 169653 0 7196.299166666667 4381 0 1 2190 2190
16	5390970 114448 0 169734 0 7199.299166666667 4659 0 1 2329 2329
17	5505418 111159 0 169696 0 7197.899166666667 4519 0 1 2259 2259
18	5616577 111530 0 169714 0 7198.799166666667 4537 0 1 2268 2268
19	5728107 111266 0 169730 0 7199.199166666667 4521 0 1 2260 2260
20	5839373 113128 0 169738 0 7199.699166666667 4601 0 1 2300 2300
21	5952501 758112 113523 169739 4788.000002755413 7199.69916925205 16566 0.33894663198634 0.34069168727906 5631.1745951653 1914.1720332062

